
Host: solvgnn-1

Timers On : Thu Mar  7 21:37:22 2024
Timers Off: Thu Mar  7 21:40:22 2024

Wall Time:      179.26 seconds

                                                       Time (seconds)
Module                                       User      System        Wall        Calls

--------------------------------------------------------------------------------------

**************************************************************************************

Host: solvgnn-1

Timers On : Thu Mar  7 21:44:55 2024
Timers Off: Thu Mar  7 21:44:56 2024

Wall Time:        1.49 seconds

                                                       Time (seconds)
Module                                       User      System        Wall        Calls

--------------------------------------------------------------------------------------

**************************************************************************************

Host: solvgnn-1

Timers On : Thu Mar  7 21:45:15 2024
Timers Off: Thu Mar  7 21:45:17 2024

Wall Time:        1.42 seconds

                                                       Time (seconds)
Module                                       User      System        Wall        Calls

--------------------------------------------------------------------------------------

**************************************************************************************

Host: solvgnn-1

Timers On : Thu Mar  7 21:45:30 2024
Timers Off: Thu Mar  7 21:45:31 2024

Wall Time:        1.19 seconds

                                                       Time (seconds)
Module                                       User      System        Wall        Calls

--------------------------------------------------------------------------------------

**************************************************************************************

Host: solvgnn-1

Timers On : Thu Mar  7 21:46:04 2024
Timers Off: Thu Mar  7 21:46:05 2024

Wall Time:        1.54 seconds

                                                       Time (seconds)
Module                                       User      System        Wall        Calls

--------------------------------------------------------------------------------------

**************************************************************************************

Host: solvgnn-1

Timers On : Thu Mar  7 21:46:26 2024
Timers Off: Thu Mar  7 21:46:27 2024

Wall Time:        1.29 seconds

                                                       Time (seconds)
Module                                       User      System        Wall        Calls

--------------------------------------------------------------------------------------

**************************************************************************************

Host: solvgnn-1

Timers On : Thu Mar  7 21:46:56 2024
Timers Off: Thu Mar  7 21:46:57 2024

Wall Time:        1.27 seconds

                                                       Time (seconds)
Module                                       User      System        Wall        Calls

--------------------------------------------------------------------------------------

**************************************************************************************

Host: solvgnn-1

Timers On : Thu Mar  7 21:48:06 2024
Timers Off: Thu Mar  7 21:48:07 2024

Wall Time:        1.27 seconds

                                                       Time (seconds)
Module                                       User      System        Wall        Calls

--------------------------------------------------------------------------------------

**************************************************************************************

Host: solvgnn-1

Timers On : Thu Mar  7 21:49:41 2024
Timers Off: Thu Mar  7 21:49:42 2024

Wall Time:        1.12 seconds

                                                       Time (seconds)
Module                                       User      System        Wall        Calls

--------------------------------------------------------------------------------------

**************************************************************************************

Host: solvgnn-1

Timers On : Thu Mar  7 21:49:56 2024
Timers Off: Thu Mar  7 21:49:58 2024

Wall Time:        1.35 seconds

                                                       Time (seconds)
Module                                       User      System        Wall        Calls

--------------------------------------------------------------------------------------

**************************************************************************************

Host: solvgnn-1

Timers On : Thu Mar  7 21:52:50 2024
Timers Off: Thu Mar  7 21:52:52 2024

Wall Time:        1.30 seconds

                                                       Time (seconds)
Module                                       User      System        Wall        Calls

--------------------------------------------------------------------------------------

**************************************************************************************

Host: solvgnn-1

Timers On : Thu Mar  7 21:53:10 2024
Timers Off: Thu Mar  7 21:53:11 2024

Wall Time:        1.30 seconds

                                                       Time (seconds)
Module                                       User      System        Wall        Calls

--------------------------------------------------------------------------------------

**************************************************************************************

Host: solvgnn-1

Timers On : Thu Mar  7 21:56:39 2024
Timers Off: Thu Mar  7 21:58:11 2024

Wall Time:       92.41 seconds

                                                       Time (seconds)
Module                                       User      System        Wall        Calls

--------------------------------------------------------------------------------------

**************************************************************************************

Host: solvgnn-1

Timers On : Thu Mar  7 22:00:27 2024
Timers Off: Thu Mar  7 22:03:41 2024

Wall Time:      194.27 seconds

                                                       Time (seconds)
Module                                       User      System        Wall        Calls

--------------------------------------------------------------------------------------

**************************************************************************************

Host: solvgnn-1

Timers On : Thu Mar  7 22:09:17 2024
Timers Off: Thu Mar  7 22:09:19 2024

Wall Time:        1.50 seconds

                                                       Time (seconds)
Module                                       User      System        Wall        Calls

--------------------------------------------------------------------------------------

**************************************************************************************
